Program Version,EnergyPlus, Version 25.2.0-cf7368216c, YMD=2026.03.03 17:58
1,5,Environment Title[],Latitude[deg],Longitude[deg],Time Zone[],Elevation[m]
2,8,Day of Simulation[],Month[],Day of Month[],DST Indicator[1=yes 0=no],Hour[],StartMinute[],EndMinute[],DayType
3,5,Cumulative Day of Simulation[],Month[],Day of Month[],DST Indicator[1=yes 0=no],DayType  ! When Daily Report Variables Requested
4,2,Cumulative Days of Simulation[],Month[]  ! When Monthly Report Variables Requested
5,1,Cumulative Days of Simulation[] ! When Run Period Report Variables Requested
6,1,Calendar Year of Simulation[] ! When Annual Report Variables Requested
449,1,GF_LIVING_ROOM,Zone Mean Air Temperature [C] !Hourly
450,1,GF_KITCHEN,Zone Mean Air Temperature [C] !Hourly
451,1,UF_BEDROOM,Zone Mean Air Temperature [C] !Hourly
452,1,UF_BATHROOM,Zone Mean Air Temperature [C] !Hourly
453,1,UF_STORAGE_ROOM,Zone Mean Air Temperature [C] !Hourly
1327,1,BUFFERTANK,Water Heater Tank Temperature [C] !Hourly
1469,1,DHW_TANK,Water Heater Tank Temperature [C] !Hourly
End of Data Dictionary
1,ANNUALRUN,  41.23,  -8.68,   0.00,  73.00
2,1, 1, 1, 0, 1, 0.00,60.00,Sunday
449,19.21420014231895
450,18.506631066387307
451,17.307141595786124
452,17.718207755415612
453,18.073939167793192
1327,59.05725652853326
1469,50.60020855899018
2,1, 1, 1, 0, 2, 0.00,60.00,Sunday
449,19.200057137585272
450,18.36361838554358
451,17.207251106371583
452,17.694592070968195
453,17.951281655120056
1327,59.07426778010511
1469,50.573501539222484
2,1, 1, 1, 0, 3, 0.00,60.00,Sunday
449,19.161477851810456
450,18.24896151976359
451,17.1168413779204
452,17.642491956281752
453,17.858091234779092
1327,59.011549257542804
1469,50.539883269530115
2,1, 1, 1, 0, 4, 0.00,60.00,Sunday
449,19.11526565185246
450,18.135629849788785
451,17.036259649249164
452,17.584830395204147
453,17.771113812193963
1327,58.905994062668476
1469,50.5068490353254
2,1, 1, 1, 0, 5, 0.00,60.00,Sunday
449,19.070665570978683
450,18.027901381480156
451,16.9653507534294
452,17.526004530824103
453,17.691099249544674
1327,58.89521085281295
1469,50.47305042812173
2,1, 1, 1, 0, 6, 0.00,60.00,Sunday
449,19.031341667693574
450,17.928747734311283
451,16.901758912776025
452,17.472485854613897
453,17.61884566993696
1327,59.123602828067874
1469,50.43907872939567
2,1, 1, 1, 0, 7, 0.00,60.00,Sunday
449,18.935793638457724
450,17.828445750768186
451,16.9141911266033
452,17.3943053585637
453,17.575733049865498
1327,58.91360024709592
1469,50.33758690396354
2,1, 1, 1, 0, 8, 0.00,60.00,Sunday
449,18.883156884707983
450,17.71408327464364
451,16.864188136633572
452,17.3032244763112
453,17.50912212960712
1327,58.96148824790812
1469,50.590421826773564
2,1, 1, 1, 0, 9, 0.00,60.00,Sunday
449,18.861802476973917
450,17.597815969182744
451,16.586576666319253
452,17.22701012849168
453,17.342291773301806
1327,59.03365012506541
1469,50.638531209624716
2,1, 1, 1, 0,10, 0.00,60.00,Sunday
449,18.98623143459101
450,17.79449079782814
451,16.575903970115938
452,17.317469736729006
453,17.339155907978352
1327,58.90759885114206
1469,50.35305900576806
2,1, 1, 1, 0,11, 0.00,60.00,Sunday
449,19.179689139599578
450,18.120474259564034
451,16.64104037346384
452,17.518487702281167
453,17.421632064428273
1327,59.07923035035343
1469,50.62034909290289
2,1, 1, 1, 0,12, 0.00,60.00,Sunday
449,19.29398174953708
450,18.323290489783872
451,16.6900476061307
452,17.656472393291413
453,17.518134483806442
1327,58.84014228209016
1469,50.344849212161044
2,1, 1, 1, 0,13, 0.00,60.00,Sunday
449,19.4182770403713
450,18.4269504048118
451,16.81547909712551
452,17.772151983898915
453,17.664576902359535
1327,59.055074004685004
1469,50.62740196540341
2,1, 1, 1, 0,14, 0.00,60.00,Sunday
449,19.499578180162924
450,18.557530701713457
451,16.980493255867323
452,17.881743049179057
453,17.82953882725769
1327,59.04949529596465
1469,50.339834397603866
2,1, 1, 1, 0,15, 0.00,60.00,Sunday
449,19.535574655986174
450,18.639719229048147
451,17.174815498822582
452,17.923760936029495
453,17.965685826187716
1327,58.999312239399565
1469,50.631677926906605
2,1, 1, 1, 0,16, 0.00,60.00,Sunday
449,19.564740754786946
450,18.723616549081925
451,17.29410739354049
452,17.96493300992948
453,18.090980320526572
1327,58.98350846093757
1469,50.33697515455147
2,1, 1, 1, 0,17, 0.00,60.00,Sunday
449,19.54235143687657
450,18.77740834947296
451,17.314438260241918
452,17.971541930033446
453,18.168815028296336
1327,58.97768335433181
1469,50.6340283366505
2,1, 1, 1, 0,18, 0.00,60.00,Sunday
449,19.649621734072717
450,19.142567342194056
451,17.893927675934002
452,18.24957906589995
453,18.606830553468942
1327,59.01918375764853
1469,50.33697293820438
2,1, 1, 1, 0,19, 0.00,60.00,Sunday
449,19.588390058385322
450,19.160250255910192
451,17.921422080843296
452,18.205975944888735
453,18.625026365216506
1327,58.84316570108397
1469,50.40448671438995
2,1, 1, 1, 0,20, 0.00,60.00,Sunday
449,19.512580951042153
450,19.107656604633164
451,17.901566581725266
452,18.109008804854
453,18.59159729855729
1327,58.871449010516386
1469,50.514930593727385
2,1, 1, 1, 0,21, 0.00,60.00,Sunday
449,19.500614573671015
450,19.088518455218523
451,17.893772254854156
452,18.08262483920178
453,18.568894629413784
1327,59.16670413765721
1469,50.69037364671138
2,1, 1, 1, 0,22, 0.00,60.00,Sunday
449,19.40385894078761
450,19.00222806706111
451,17.819083775338427
452,17.99433808804212
453,18.48561251315595
1327,59.02832660839217
1469,50.3309656668917
2,1, 1, 1, 0,23, 0.00,60.00,Sunday
449,19.284914278625806
450,18.827864782815812
451,17.718827850882565
452,17.81535568101513
453,18.36910653217179
1327,58.98390455758613
1469,50.73739779007394
2,1, 1, 1, 0,24, 0.00,60.00,Sunday
449,19.199488135040554
450,18.617229017094072
451,17.4123386852831
452,17.684992905423286
453,18.155030723257298
1327,58.98420032528966
1469,50.42136713774813
2,2, 1, 2, 0, 1, 0.00,60.00,Monday
449,19.11783192686866
450,18.38650777409384
451,17.167053287116104
452,17.584791335309582
453,17.933552583759145
1327,58.95595377920596
1469,50.573295466468736
2,2, 1, 2, 0, 2, 0.00,60.00,Monday
449,19.10878006631708
450,18.227494464069203
451,17.065005989535795
452,17.52564037715311
453,17.81648709810775
1327,58.884465942390946
1469,50.53988001220319
2,2, 1, 2, 0, 3, 0.00,60.00,Monday
449,19.107120330007806
450,18.166874856408917
451,16.99684648577427
452,17.537766922463202
453,17.748946783354988
1327,58.951905634308645
1469,50.50658202797581
2,2, 1, 2, 0, 4, 0.00,60.00,Monday
449,19.022926230305963
450,18.012237572273055
451,16.89065745254363
452,17.43795371165441
453,17.633794468529068
1327,59.10488937666243
1469,50.4727955916327
2,2, 1, 2, 0, 5, 0.00,60.00,Monday
449,18.927003666317585
450,17.840117824660204
451,16.780677135858028
452,17.317315690523625
453,17.518052888546187
1327,58.908774297894134
1469,50.43863781227726
2,2, 1, 2, 0, 6, 0.00,60.00,Monday
449,18.906574029941808
450,17.736760480677816
451,16.71661536725069
452,17.26894049319026
453,17.44941107671345
1327,58.98220693703847
1469,50.40448224740956
2,2, 1, 2, 0, 7, 0.00,60.00,Monday
449,18.949822223319522
450,17.762611794265347
451,16.79742537351849
452,17.333560678765913
453,17.485866137143848
1327,59.030272156152094
1469,50.36377595526411
2,2, 1, 2, 0, 8, 0.00,60.00,Monday
449,18.871634471916973
450,17.673949678620936
451,16.73912856563743
452,17.269958828375884
453,17.41542183486074
1327,58.86079225979976
1469,50.55748874345521
2,2, 1, 2, 0, 9, 0.00,60.00,Monday
449,18.809506364560782
450,17.48464030612955
451,16.43004744638474
452,17.109737044094423
453,17.209697740715587
1327,59.09960775048957
1469,50.707725749080716
2,2, 1, 2, 0,10, 0.00,60.00,Monday
449,18.855666898319438
450,17.723721063622968
451,16.451006700292268
452,17.186891498400634
453,17.247601673481068
1327,58.926606606383885
1469,50.2517016451726
2,2, 1, 2, 0,11, 0.00,60.00,Monday
449,18.750451750760195
450,18.07543626602803
451,16.507060794098237
452,17.400489101073344
453,17.34944542300709
1327,59.044860747310715
1469,50.719638964922
2,2, 1, 2, 0,12, 0.00,60.00,Monday
449,18.9853742321649
450,18.30259022855711
451,16.60963353568302
452,17.618101861255717
453,17.455577282989218
1327,58.84938904433716
1469,50.24798195260985
2,2, 1, 2, 0,13, 0.00,60.00,Monday
449,19.153303230972604
450,18.426934698439723
451,16.763648833506515
452,17.725474438018956
453,17.623330779279364
1327,59.124899055861405
1469,50.72315345706283
2,2, 1, 2, 0,14, 0.00,60.00,Monday
449,19.511483554919103
450,18.568838913978254
451,16.911051423381956
452,17.852510523671256
453,17.776836452124172
1327,58.94187496808641
1469,50.246053682269086
2,2, 1, 2, 0,15, 0.00,60.00,Monday
449,19.537424747215663
450,18.628258770172867
451,17.04753192314456
452,17.900166341937407
453,17.888114210789517
1327,58.89920966821047
1469,50.72477320719696
2,2, 1, 2, 0,16, 0.00,60.00,Monday
449,19.516359953057528
450,18.649335705122915
451,17.166281468742348
452,17.878906180789873
453,17.965064634087096
1327,58.89600543486854
1469,50.24480735421814
2,2, 1, 2, 0,17, 0.00,60.00,Monday
449,19.476006710486402
450,18.637316417073055
451,17.173792168820857
452,17.848810893378488
453,18.015265742400686
1327,58.9918514734819
1469,50.725863078575415
2,2, 1, 2, 0,18, 0.00,60.00,Monday
449,19.567174156218023
450,19.001093280234123
451,17.725920083017463
452,18.09427929705132
453,18.43693899121126
1327,58.945939675755085
1469,50.24428636252386
2,2, 1, 2, 0,19, 0.00,60.00,Monday
449,19.48376102175429
450,18.98119410726619
451,17.7321791313635
452,18.016564559460864
453,18.428572006660794
1327,59.12011451432338
1469,50.73032055677276
2,2, 1, 2, 0,20, 0.00,60.00,Monday
449,19.397554746852144
450,18.911219137472642
451,17.703188538974253
452,17.905662059146277
453,18.384253860938017
1327,59.06147270191685
1469,50.312960666234375
2,2, 1, 2, 0,21, 0.00,60.00,Monday
449,19.405332965616296
450,18.90450094121528
451,17.703362325352487
452,17.89976370769511
453,18.373826322067345
1327,59.008530564120136
1469,50.68705226265106
2,2, 1, 2, 0,22, 0.00,60.00,Monday
449,19.34706371034958
450,18.863717392524904
451,17.64892379095324
452,17.869041050601965
453,18.317611320293143
1327,58.982109765177285
1469,50.449466960092536
2,2, 1, 2, 0,23, 0.00,60.00,Monday
449,19.272422770111273
450,18.744100046369844
451,17.571468768566046
452,17.752683127768655
453,18.229992147471663
1327,58.97370606125333
1469,50.59219780722827
2,2, 1, 2, 0,24, 0.00,60.00,Monday
449,19.17772862768485
450,18.527734845725067
451,17.25819270095066
452,17.620032722325018
453,17.97553336675007
1327,58.98491008140998
1469,50.50896238753556
2,3, 1, 3, 0, 1, 0.00,60.00,Tuesday
449,19.11595178416151
450,18.283925037289873
451,17.02286446619064
452,17.51742046498549
453,17.78040619427527
1327,58.92342174666268
1469,50.548319249219894
2,3, 1, 3, 0, 2, 0.00,60.00,Tuesday
449,19.00696809441696
450,18.079944163543626
451,16.86986916609823
452,17.38348429668235
453,17.628006780883084
1327,58.84610379986179
1469,50.515224307631094
2,3, 1, 3, 0, 3, 0.00,60.00,Tuesday
449,18.97217828933584
450,17.93225236090832
451,16.774642562980404
452,17.302037894249658
453,17.527286863268714
1327,59.156735041355475
1469,50.48168697087348
2,3, 1, 3, 0, 4, 0.00,60.00,Tuesday
449,18.892788424764426
450,17.800626100244948
451,16.671572462445717
452,17.233152089965778
453,17.424572040113176
1327,58.93981095164534
1469,50.447112102048834
2,3, 1, 3, 0, 5, 0.00,60.00,Tuesday
449,18.845373713941292
450,17.653862445032733
451,16.582464887858073
452,17.141056334201497
453,17.32814953017659
1327,58.970241816557
1469,50.41272380772626
2,3, 1, 3, 0, 6, 0.00,60.00,Tuesday
449,18.874934526262855
450,17.617870987513015
451,16.541339733939417
452,17.166632926415218
453,17.293059721322106
1327,59.00580307992623
1469,50.37790238738339
2,3, 1, 3, 0, 7, 0.00,60.00,Tuesday
449,18.882807962689732
450,17.615034955309294
451,16.59990904525213
452,17.198150772101044
453,17.30542645961018
1327,58.94888340766765
1469,50.38919927362034
2,3, 1, 3, 0, 8, 0.00,60.00,Tuesday
449,18.85673321680674
450,17.56152501409217
451,16.56585930945856
452,17.16258236453467
453,17.256718548536654
1327,59.01300877735714
1469,50.533466129831666
2,3, 1, 3, 0, 9, 0.00,60.00,Tuesday
449,18.584020203298646
450,17.514635531814744
451,16.291099132391484
452,17.018211899966236
453,17.148166742598033
1327,59.02967722405575
1469,50.75218749213566
2,3, 1, 3, 0,10, 0.00,60.00,Tuesday
449,18.306960819228475
450,17.61860045266304
451,16.176616480913566
452,17.030848753461136
453,17.065771704956745
1327,58.845612259606014
1469,50.237487451240284
2,3, 1, 3, 0,11, 0.00,60.00,Tuesday
449,18.509622831802158
450,17.868406053478928
451,16.21514486204972
452,17.145771390429832
453,17.11146541680089
1327,59.13230452666907
1469,50.73243963129504
2,3, 1, 3, 0,12, 0.00,60.00,Tuesday
449,18.72506270778951
450,18.068538001155794
451,16.328907630612072
452,17.281109039593563
453,17.211269313454032
1327,58.8203124647065
1469,50.23943627270728
2,3, 1, 3, 0,13, 0.00,60.00,Tuesday
449,19.020060782023798
450,18.22943623761195
451,16.50584461434613
452,17.465309981016524
453,17.386552328664287
1327,59.151265586952405
1469,50.73083011904591
2,3, 1, 3, 0,14, 0.00,60.00,Tuesday
449,19.34944341187382
450,18.41012310050042
451,16.710736398064526
452,17.65969469099828
453,17.574550938299126
1327,58.90274614466948
1469,50.24082780100209
2,3, 1, 3, 0,15, 0.00,60.00,Tuesday
449,19.49983564143068
450,18.491610912761416
451,16.86613249086027
452,17.74127405562276
453,17.692268920547498
1327,58.87519575230786
1469,50.72946601026983
2,3, 1, 3, 0,16, 0.00,60.00,Tuesday
449,19.55659170887048
450,18.58216155526703
451,17.00327583378583
452,17.81127251709148
453,17.8237933864015
1327,59.091638889988275
1469,50.24188671981224
2,3, 1, 3, 0,17, 0.00,60.00,Tuesday
449,19.534860730823528
450,18.63269881784148
451,17.05001854451988
452,17.83956927298219
453,17.914137778803052
1327,59.03972961659664
1469,50.72843306163696
2,3, 1, 3, 0,18, 0.00,60.00,Tuesday
449,19.59517303707061
450,18.985374422036937
451,17.604386722258205
452,18.040850167983148
453,18.324198852999654
1327,58.952012527664095
1469,50.24215035382361
2,3, 1, 3, 0,19, 0.00,60.00,Tuesday
449,19.46714020560586
450,18.934183661267777
451,17.600983799469944
452,17.928290021343866
453,18.31122381473379
1327,58.88877168630117
1469,50.63481718385015
2,3, 1, 3, 0,20, 0.00,60.00,Tuesday
449,19.403361005101214
450,18.874766239058815
451,17.595867285077702
452,17.819530408998975
453,18.289880889404646
1327,58.878555775148484
1469,50.52681089520453
2,3, 1, 3, 0,21, 0.00,60.00,Tuesday
449,19.423885550979715
450,18.90884930017088
451,17.612301278169923
452,17.854753107721336
453,18.303566124587043
1327,59.01750987127873
1469,50.436387602141814
2,3, 1, 3, 0,22, 0.00,60.00,Tuesday
449,19.429245281522313
450,18.92402242635368
451,17.599137539743833
452,17.885175392042594
453,18.289121497795083
1327,59.06472259138442
1469,50.75619642588257
2,3, 1, 3, 0,23, 0.00,60.00,Tuesday
449,19.414459966561168
450,18.907074338233468
451,17.561268256709035
452,17.878287496482937
453,18.247112569234627
1327,59.03438193693905
1469,50.457440034110334
2,3, 1, 3, 0,24, 0.00,60.00,Tuesday
449,19.312620534069463
450,18.699270433746765
451,17.250885779546046
452,17.734394596302195
453,17.98355521940302
1327,58.949574208703076
1469,50.59110020761415
2,4, 1, 4, 0, 1, 0.00,60.00,Wednesday
449,19.273234070392455
450,18.501933755652622
451,17.039579191310366
452,17.644102392982454
453,17.8198497534485
1327,58.87282966278682
1469,50.524829946475286
2,4, 1, 4, 0, 2, 0.00,60.00,Wednesday
449,19.232696447521175
450,18.36444624590978
451,16.93965590463847
452,17.59287028022893
453,17.722807476114625
1327,59.06688543015798
1469,50.49326955201613
2,4, 1, 4, 0, 3, 0.00,60.00,Wednesday
449,19.1969145960728
450,18.251874053133598
451,16.86531094126501
452,17.537488972252756
453,17.64226124564143
1327,59.069998931827485
1469,50.46004805651962
2,4, 1, 4, 0, 4, 0.00,60.00,Wednesday
449,19.1751926393436
450,18.176869511534917
451,16.81409217680204
452,17.51533572756957
453,17.5859049900377
1327,58.944510393683785
1469,50.42714239858975
2,4, 1, 4, 0, 5, 0.00,60.00,Wednesday
449,19.188749318070485
450,18.1344087521372
451,16.78983290060568
452,17.52103154845672
453,17.555028511053305
1327,58.8473012753757
1469,50.39406716879458
2,4, 1, 4, 0, 6, 0.00,60.00,Wednesday
449,19.183040624724512
450,18.09463953676309
451,16.746257938608487
452,17.52420799206588
453,17.52182337919506
1327,59.15075673156824
1469,50.36121135266226
2,4, 1, 4, 0, 7, 0.00,60.00,Wednesday
449,19.21162345689626
450,18.12075253181958
451,16.854309668859237
452,17.56984312796698
453,17.567878901471204
1327,58.96939065754494
1469,50.41263312319164
2,4, 1, 4, 0, 8, 0.00,60.00,Wednesday
449,19.257275881766006
450,18.173159969531497
451,16.88091471382813
452,17.634257287772243
453,17.597017224054927
1327,58.8277765752139
1469,50.51383105973764
2,4, 1, 4, 0, 9, 0.00,60.00,Wednesday
449,19.193535017179983
450,18.027028203714448
451,16.592786952185435
452,17.529423203764505
453,17.440153816837732
1327,59.15682207171586
1469,50.78880457463376
2,4, 1, 4, 0,10, 0.00,60.00,Wednesday
449,19.270024883493022
450,18.032145647033747
451,16.59652058417604
452,17.55292838748628
453,17.44172516785563
1327,58.94413851080266
1469,50.270678762689606
2,4, 1, 4, 0,11, 0.00,60.00,Wednesday
449,19.380660392869896
450,18.150522231206097
451,16.668628321890942
452,17.681214620772366
453,17.498248421297745
1327,58.89967951487671
1469,50.69847514062724
2,4, 1, 4, 0,12, 0.00,60.00,Wednesday
449,19.387528720924635
450,18.186664698133825
451,16.683373731612058
452,17.70394934819476
453,17.499791072440445
1327,59.110869998780615
1469,50.27642899363112
2,4, 1, 4, 0,13, 0.00,60.00,Wednesday
449,19.43867470369311
450,18.24677854362683
451,16.733950486763522
452,17.74745665849144
453,17.53482163023206
1327,58.937353247654364
1469,50.69287980650146
2,4, 1, 4, 0,14, 0.00,60.00,Wednesday
449,19.4477750060778
450,18.30349072432033
451,16.768006925247533
452,17.791047198930432
453,17.566353955421558
1327,58.84365462257883
1469,50.28169299346877
2,4, 1, 4, 0,15, 0.00,60.00,Wednesday
449,19.42182990073133
450,18.292260195263076
451,16.770713035353594
452,17.767235118743173
453,17.56686129855051
1327,59.14482318170375
1469,50.687676453931054
2,4, 1, 4, 0,16, 0.00,60.00,Wednesday
449,19.462980122239067
450,18.339429977094653
451,16.816787622608754
452,17.81267043011923
453,17.612124257588352
1327,59.01763113274623
1469,50.28684195144115
2,4, 1, 4, 0,17, 0.00,60.00,Wednesday
449,19.495482460971278
450,18.395074030608125
451,16.86015375701439
452,17.872616939528513
453,17.657538404852673
1327,58.9029508507101
1469,50.68260867976278
2,4, 1, 4, 0,18, 0.00,60.00,Wednesday
449,19.608946760564542
450,18.810945648856226
451,17.447561401430463
452,18.15781501178948
453,18.05572331542748
1327,58.96204305802516
1469,50.28960700786811
2,4, 1, 4, 0,19, 0.00,60.00,Wednesday
449,19.637841750381895
450,18.930305100750655
451,17.545113058858757
452,18.24769215939091
453,18.12073747108053
1327,59.0146099445457
1469,50.40937927190605
2,4, 1, 4, 0,20, 0.00,60.00,Wednesday
449,19.647013002738284
450,19.03087750795702
451,17.611689600206965
452,18.301078722038405
453,18.182258287276937
1327,59.04784982340689
1469,50.76094437510215
2,4, 1, 4, 0,21, 0.00,60.00,Wednesday
449,19.637241013339185
450,19.079706796151385
451,17.64987407649965
452,18.30398940829004
453,18.21552951116705
1327,59.01509487702957
1469,50.32212720680372
2,4, 1, 4, 0,22, 0.00,60.00,Wednesday
449,19.673240577949045
450,19.16675014176483
451,17.7095110514597
452,18.35859042790391
453,18.273779257712317
1327,58.988207389869
1469,50.613930885526806
2,4, 1, 4, 0,23, 0.00,60.00,Wednesday
449,19.677553010650335
450,19.234927979220263
451,17.7444429509679
452,18.390528983072116
453,18.307885273628305
1327,58.88499893096632
1469,50.58743208377135
2,4, 1, 4, 0,24, 0.00,60.00,Wednesday
449,19.610318347176037
450,19.087391401145968
451,17.509976839741512
452,18.254197127648396
453,18.15739707772477
1327,58.8936550147163
1469,50.43433248614743
2,5, 1, 5, 0, 1, 0.00,60.00,Thursday
449,19.60900352376833
450,19.002060250808697
451,17.382732721336208
452,18.19997116469048
453,18.08031299727821
1327,58.93861117154398
1469,50.370124009447395
2,5, 1, 5, 0, 2, 0.00,60.00,Thursday
449,19.62286450391506
450,18.989328421135568
451,17.37118586492252
452,18.213266852210175
453,18.07678116505091
1327,58.95175408509981
1469,50.41378000413382
2,5, 1, 5, 0, 3, 0.00,60.00,Thursday
449,19.58996834764679
450,18.943527623885196
451,17.34627731918704
452,18.184818946425295
453,18.0538293043464
1327,58.980900016005094
1469,50.57687161716136
2,5, 1, 5, 0, 4, 0.00,60.00,Thursday
449,19.597291127359917
450,18.923911840125356
451,17.351640875680573
452,18.185493604454482
453,18.05731891673788
1327,58.982496303394775
1469,50.59221125327015
2,5, 1, 5, 0, 5, 0.00,60.00,Thursday
449,19.58531120406547
450,18.914569663795437
451,17.35295501347128
452,18.191540774204416
453,18.058021496837306
1327,58.988955276976
1469,50.55981024874366
2,5, 1, 5, 0, 6, 0.00,60.00,Thursday
449,19.564789435876158
450,18.88093805048357
451,17.34809664533976
452,18.168029163155413
453,18.048676193798375
1327,58.98850203872029
1469,50.52767669341034
2,5, 1, 5, 0, 7, 0.00,60.00,Thursday
449,19.587987393410742
450,18.95002571294496
451,17.466707745909932
452,18.228702442277378
453,18.125872015196045
1327,58.99119058861009
1469,50.30809691453659
2,5, 1, 5, 0, 8, 0.00,60.00,Thursday
449,19.59330231178695
450,18.982884885101736
451,17.501568175361793
452,18.255034082738486
453,18.152162879354485
1327,59.03844585773534
1469,50.662754815558074
2,5, 1, 5, 0, 9, 0.00,60.00,Thursday
449,19.55234325084492
450,18.859733788524995
451,17.298850267915157
452,18.15926868718833
453,18.02616632189215
1327,58.9542653400406
1469,50.444682274007285
2,5, 1, 5, 0,10, 0.00,60.00,Thursday
449,19.610860920331824
450,18.8742925995147
451,17.31363985771587
452,18.19500614655802
453,18.041988011581218
1327,58.95729339103864
1469,50.63177223228867
2,5, 1, 5, 0,11, 0.00,60.00,Thursday
449,19.65366060949578
450,18.932828203761737
451,17.347969696734346
452,18.25800366090106
453,18.07148295763767
1327,58.98317008589723
1469,50.3381180749517
2,5, 1, 5, 0,12, 0.00,60.00,Thursday
449,19.673589222403592
450,18.969039567471008
451,17.377716316201145
452,18.28279048592551
453,18.089248508206786
1327,59.0006470979506
1469,50.63243240172585
2,5, 1, 5, 0,13, 0.00,60.00,Thursday
449,19.73581460315934
450,19.06452086439486
451,17.450036465656773
452,18.358284069090832
453,18.14631142098683
1327,59.03398616502308
1469,50.33738245376218
2,5, 1, 5, 0,14, 0.00,60.00,Thursday
449,19.800367512747364
450,19.17991433376367
451,17.542227611912175
452,18.455376028145754
453,18.22266219620672
1327,59.06975889686789
1469,50.63361447026602
2,5, 1, 5, 0,15, 0.00,60.00,Thursday
449,19.796521682409896
450,19.235945316233817
451,17.606201694090185
452,18.482458701920677
453,18.264073873554956
1327,59.031655541601474
1469,50.33464433948657
2,5, 1, 5, 0,16, 0.00,60.00,Thursday
449,19.786779539123323
450,19.257988929464645
451,17.643955226124863
452,18.486282068191258
453,18.309891668541702
1327,58.952247779583914
1469,50.63667312436165
2,5, 1, 5, 0,17, 0.00,60.00,Thursday
449,19.763455341760455
450,19.265371801973565
451,17.662624635156693
452,18.492528077422893
453,18.356949870298898
1327,58.841491629330164
1469,50.33103045449447
2,5, 1, 5, 0,18, 0.00,60.00,Thursday
449,19.82961025164078
450,19.594451163781827
451,18.20324925530902
452,18.81523029489972
453,18.75267676932618
1327,59.035646986704435
1469,50.640852213058764
2,5, 1, 5, 0,19, 0.00,60.00,Thursday
449,19.796890791196066
450,19.63715992110589
451,18.245936906223637
452,18.764445649227685
453,18.785162460294234
1327,59.03357511459751
1469,50.33220380713166
2,5, 1, 5, 0,20, 0.00,60.00,Thursday
449,19.752800734191453
450,19.6246353550666
451,18.255383074751705
452,18.716820001407772
453,18.794872657646167
1327,58.851162233904105
1469,50.590433116593594
2,5, 1, 5, 0,21, 0.00,60.00,Thursday
449,19.767964299677583
450,19.652885300640172
451,18.28794120206181
452,18.73330277205303
453,18.825202162728626
1327,59.17450675095874
1469,50.59224740563856
2,5, 1, 5, 0,22, 0.00,60.00,Thursday
449,19.78964380088912
450,19.71249199680084
451,18.31654817497132
452,18.793165724298674
453,18.862293789109508
1327,58.72955710901906
1469,50.39348576679407
2,5, 1, 5, 0,23, 0.00,60.00,Thursday
449,19.771513617068727
450,19.703853468685864
451,18.304487249111776
452,18.78060863946426
453,18.853146895014465
1327,59.24834595969896
1469,50.776357776555315
2,5, 1, 5, 0,24, 0.00,60.00,Thursday
449,19.694601617073932
450,19.512071522259568
451,18.034617339496364
452,18.637178875110145
453,18.675393947031946
1327,58.66178721407963
1469,50.38725561004928
2,6, 1, 6, 0, 1, 0.00,60.00,Friday
449,19.648134444802455
450,19.35118479387425
451,17.85068461645517
452,18.536020078089635
453,18.547655360968093
1327,59.16739755410769
1469,50.57973916369551
2,6, 1, 6, 0, 2, 0.00,60.00,Friday
449,19.62259709228582
450,19.25146267148006
451,17.78576787752826
452,18.484131444845218
453,18.488917757302517
1327,59.08654587877871
1469,50.549028344089926
2,6, 1, 6, 0, 3, 0.00,60.00,Friday
449,19.599119526781994
450,19.17747288661088
451,17.742569314160107
452,18.4554892674133
453,18.448645197246897
1327,58.98148048467682
1469,50.5184592814687
2,6, 1, 6, 0, 4, 0.00,60.00,Friday
449,19.59101626660892
450,19.12066009680731
451,17.71696016667387
452,18.440353750994888
453,18.42299787963798
1327,58.91603652718452
1469,50.48845451283805
2,6, 1, 6, 0, 5, 0.00,60.00,Friday
449,19.560377178576466
450,19.057262542973902
451,17.682091646060847
452,18.41321112535013
453,18.389316071146176
1327,58.883664407596285
1469,50.45764049812595
2,6, 1, 6, 0, 6, 0.00,60.00,Friday
449,19.539916258748896
450,18.989837507930552
451,17.653122432445564
452,18.37961091303
453,18.358157401213965
1327,58.88883687833511
1469,50.42728058155005
2,6, 1, 6, 0, 7, 0.00,60.00,Friday
449,19.556991170156103
450,19.021976055258023
451,17.748629154711473
452,18.427558231104904
453,18.413542637973293
1327,59.020862340896024
1469,50.3492874597772
2,6, 1, 6, 0, 8, 0.00,60.00,Friday
449,19.552091713786705
450,19.015796547596043
451,17.75718097709604
452,18.433757741498564
453,18.416169363455523
1327,59.07634399042401
1469,50.56863501216572
2,6, 1, 6, 0, 9, 0.00,60.00,Friday
449,19.497204674282017
450,18.878651409663345
451,17.525326471939835
452,18.291510662557982
453,18.237242744818698
1327,58.997667884736956
1469,50.69191146209142
2,6, 1, 6, 0,10, 0.00,60.00,Friday
449,19.557995054806884
450,19.003519502525766
451,17.527223633070086
452,18.31972785075046
453,18.230471569021788
1327,59.013280402118845
1469,50.270232598932054
2,6, 1, 6, 0,11, 0.00,60.00,Friday
449,19.64054602947641
450,19.196759495774245
451,17.5769291117416
452,18.42092783685262
453,18.276719080274884
1327,59.02389850913967
1469,50.699707257984144
2,6, 1, 6, 0,12, 0.00,60.00,Friday
449,19.70411231533689
450,19.292059338718612
451,17.640910200520207
452,18.499574105890144
453,18.343339580031806
1327,59.00387743669476
1469,50.272423836692774
2,6, 1, 6, 0,13, 0.00,60.00,Friday
449,19.786330168408846
450,19.381720599192946
451,17.739510172743095
452,18.605056580501678
453,18.452258863863225
1327,58.928438347376776
1469,50.69737659345593
2,6, 1, 6, 0,14, 0.00,60.00,Friday
449,19.85626656251299
450,19.493633276022287
451,17.85427511742889
452,18.711725741561136
453,18.569774628293636
1327,58.71149381317858
1469,50.27598150559518
2,6, 1, 6, 0,15, 0.00,60.00,Friday
449,19.866717901012198
450,19.553820099565705
451,17.939893936464284
452,18.756783326174187
453,18.652657646476566
1327,59.252324735489076
1469,50.693420676719285
2,6, 1, 6, 0,16, 0.00,60.00,Friday
449,19.830747420404542
450,19.554026937278
451,17.983219009530465
452,18.739300838276375
453,18.68956061915853
1327,59.018372178021274
1469,50.28103176966838
2,6, 1, 6, 0,17, 0.00,60.00,Friday
449,19.78502375264423
450,19.51608150812166
451,17.982537310367572
452,18.704468280344226
453,18.71663088122053
1327,58.64346807221483
1469,50.68817001216869
2,6, 1, 6, 0,18, 0.00,60.00,Friday
449,19.850999134831614
450,19.805011699976404
451,18.50841900799073
452,18.994143877415567
453,19.08438862742057
1327,59.478172434662426
1469,50.287468138983016
2,6, 1, 6, 0,19, 0.00,60.00,Friday
449,19.7955117741271
450,19.80720247176956
451,18.521939499796652
452,18.899889555061062
453,19.08780259376244
1327,58.602668420098496
1469,50.47678877635209
2,6, 1, 6, 0,20, 0.00,60.00,Friday
449,19.768649805890377
450,19.77800692267656
451,18.52867725257895
452,18.852121749470502
453,19.086886008952764
1327,59.30733436155171
1469,50.46612235087521
2,6, 1, 6, 0,21, 0.00,60.00,Friday
449,19.761461895892282
450,19.775599047282377
451,18.533251722563673
452,18.856302776085627
453,19.09188023632899
1327,58.85737738346401
1469,50.741521144215994
2,6, 1, 6, 0,22, 0.00,60.00,Friday
449,19.735164119354824
450,19.742689415985446
451,18.50867462532963
452,18.83194044300904
453,19.064034007868734